ITEM: TIMESTEP
19400000
ITEM: NUMBER OF ATOMS
8788
ITEM: BOX BOUNDS pp pp pp
0.0000000000000000e+00 3.0024785703928551e+01
0.0000000000000000e+00 3.0024785703928551e+01
0.0000000000000000e+00 3.0024785703928551e+01
ITEM: ATOMS id type xu yu zu 
2578 2 15.7291 30.3692 0.621521 
8139 4 16.7065 0.135016 30.5353 
2122 2 18.7036 0.103409 0.411795 
720 5 25.6909 0.0309724 0.404852 
1346 1 26.5239 30.6178 0.492683 
2213 1 27.293 0.14203 0.651742 
209 1 -1.9493 0.556261 0.485318 
8098 5 28.8748 30.0397 30.7731 
595 2 10.3184 31.73 0.0160186 
3416 1 15.9771 1.04185 0.0721356 
188 3 16.9239 1.04447 0.0806858 
8095 3 17.7652 31.6026 30.0933 
1954 3 18.3982 31.0373 0.59021 
756 2 19.3488 1.07236 0.35571 
152 2 25.7832 1.10543 0.25613 
7440 1 -3.52606 1.42156 30.8988 
822 2 27.3164 1.06728 0.633203 
1318 5 9.37942 32.0527 0.226275 
7871 1 10.9622 32.2845 30.4166 
2155 2 16.1629 1.8605 0.449889 
7681 3 17.0751 1.74837 30.7975 
2012 1 17.6406 32.4587 0.442089 
2705 3 -3.87611 2.09774 0.292621 
1452 4 27.1395 2.06766 0.528924 
7395 4 5.85024 33.0134 30.5057 
1410 5 8.61791 2.82266 0.297565 
739 4 9.58732 2.93606 0.783921 
626 1 10.1889 32.6439 0.095715 
8757 2 10.5911 33.01 30.8636 
8229 5 11.8807 2.65466 30.2803 
6788 1 12.5406 3.41401 30.2575 
6244 1 -14.6939 3.3509 30.2091 
6116 4 15.7255 2.69272 30.7996 
15 3 16.7215 2.64896 0.539356 
1478 1 17.4273 3.26555 0.726211 
8148 3 18.2103 3.16503 30.2318 
6857 1 26.6091 2.88114 30.6064 
2164 2 31.922 4.02085 0.788805 
3493 2 4.97586 3.46005 0.611437 
277 2 5.78268 3.9446 0.760682 
1357 4 6.50532 3.73515 0.0936108 
5596 1 9.14408 3.67175 30.2833 
8132 5 10.1418 3.63974 30.2133 
4032 4 11.4352 33.5363 0.754187 
8652 2 11.9001 34.3134 30.3392 
1216 1 12.8233 34.279 0.385225 
2002 5 13.815 34.2521 0.187391 
8082 3 14.7372 34.3133 30.7248 
7458 3 15.5562 4.27228 30.1595 
7571 4 16.62 3.63982 30.3486 
8260 4 17.5914 3.98819 30.1203 
7067 3 26.4203 3.80711 30.7527 
6923 3 -2.91316 3.49534 30.0842 
2747 1 27.6765 4.16776 0.427874 
874 1 28.5076 4.08004 0.772317 
8275 5 0.38339 5.14343 30.0664 
776 4 31.1113 4.3798 0.32762 
6869 4 1.74375 5.0092 30.8763 
6187 3 32.7009 4.59428 30.7691 
8024 1 4.18917 34.3896 30.7101 
6979 2 5.04814 4.37256 30.3769 
4380 1 5.64131 4.85162 30.9169 
838 2 5.92768 4.5602 0.0469386 
327 4 6.87948 4.79589 0.241086 
781 2 9.0214 4.55102 0.0232278 
957 4 9.9142 4.43756 0.874532 
69 5 10.8928 4.39697 0.421616 
8196 3 12.4474 5.04531 30.0384 
124 4 13.2639 5.08124 0.636965 
8240 1 14.2407 5.07411 30.5514 
1437 3 15.2073 5.14254 0.493449 
7524 4 16.373 4.58959 30.7134 
6944 4 17.3396 4.9511 30.4829 
7888 2 18.302 4.63848 30.4238 
7580 2 25.8354 4.48846 30.3559 
7689 3 26.8446 4.6517 30.4086 
8267 5 29.052 4.91308 30.8324 
893 1 -0.413682 4.5149 0.0587146 
1308 4 2.78123 35.6358 0.682218 
898 5 3.70608 5.49174 0.129318 
213 4 4.57045 5.98035 0.538861 
3559 4 5.27314 5.3176 0.1212 
8285 4 6.37587 5.49379 30.8837 
855 5 7.53274 5.6167 0.509453 
1492 3 8.5672 5.79984 0.596636 
903 3 9.43378 5.27923 0.528283 
8276 2 10.3996 5.27741 30.6467 
7559 3 11.373 5.26267 30.8208 
699 1 12.2251 5.68011 0.691622 
8189 1 12.9205 5.86218 30.1808 
8185 2 13.8129 5.88473 30.4408 
8183 1 14.6283 5.81531 30.8729 
905 5 16.4706 5.47152 0.0710266 
7718 5 18.0761 5.68013 30.7955 
727 2 18.9691 5.17592 0.802509 
6855 5 26.1645 5.44863 30.5357 
7114 2 28.4913 5.78504 30.7303 
8414 5 29.6391 5.89022 30.2933 
8218 3 0.623324 6.14375 30.3376 
1615 1 1.3566 6.52 0.784505 
7746 3 32.117 6.63178 30.2203 
309 2 32.9731 6.60133 0.668793 
730 3 3.77883 6.53719 0.174622 
173 4 5.86649 6.18338 0.263373 
164 4 5.22484 6.71189 0.908041 
2984 2 6.81265 6.34498 0.529913 
850 1 7.69895 6.60625 0.618595 
2150 1 9.42254 6.21314 0.71433 
225 4 10.4096 6.27879 0.665158 
7611 3 12.0333 6.56276 30.4028 
5631 2 13.3132 6.69208 30.4411 
8335 3 14.4929 6.57659 30.3128 
8249 2 15.3487 6.1064 30.3683 
1432 5 16.3063 6.51796 0.394987 
189 3 17.3168 6.79412 0.482506 
6322 1 18.1195 6.43536 30.1449 
8310 1 18.9692 6.04519 30.5278 
5043 2 20.2178 6.37308 0.570522 
6277 3 21.2256 6.06103 30.1366 
7527 3 22.0317 6.12551 30.8172 
1545 5 30.1894 7.08735 0.234159 
1609 4 31.5511 7.48174 0.683278 
260 4 32.5821 7.51268 0.511115 
2350 2 3.53907 7.35124 0.65913 
7703 3 4.38881 7.32921 30.2094 
938 5 6.16364 7.15097 0.62027 
948 1 7.09892 7.18219 0.263261 
178 2 7.93551 7.48727 0.496778 
180 5 8.83746 7.03001 0.68322 
80 5 9.79205 6.99018 0.110514 
7082 1 10.6755 7.48041 30.1138 
8344 3 11.1768 6.96636 30.7384 
858 2 12.0269 7.4503 0.803369 
382 3 12.6383 7.29716 0.0583358 
71 4 13.9827 7.41737 0.594181 
7519 1 14.9605 7.36586 30.5313 
5018 2 15.7423 7.6261 0.0829403 
1560 1 16.6561 7.47829 0.508767 
7769 1 19.8336 7.15833 30.3222 
2226 5 21.1121 7.10012 0.0938363 
8413 1 21.9817 7.38767 30.5145 
348 5 22.8357 7.15887 0.0173641 
884 5 33.3267 8.10398 0.0107725 
8228 2 4.08457 8.12641 30.6958 
289 4 7.22676 8.15335 0.29754 
3083 3 9.54218 7.80406 0.717089 
235 5 10.3002 8.52787 0.616166 
281 4 11.27 8.06401 0.600633 
6520 1 12.1611 38.1558 30.2242 
6888 3 13.2501 8.06139 30.2507 
913 4 14.2456 8.31151 0.0889067 
8256 3 15.1801 8.29441 30.5523 
8252 2 16.1106 8.17177 30.7961 
7775 4 20.4576 7.8951 30.4396 
1648 2 21.4267 8.07012 0.220027 
8402 4 8.64763 9.21616 30.2469 
7568 4 9.68032 9.22089 30.0984 
8328 3 11.1809 9.09014 30.6606 
7666 5 12.2336 9.20193 30.6727 
6896 3 13.2708 9.01123 30.6381 
812 5 14.3005 9.16429 0.733081 
977 2 20.1773 14.5545 0.102343 
2381 2 18.2952 15.0864 0.319375 
282 5 19.2329 14.6723 0.498502 
8421 2 20.9164 15.0605 30.4535 
1788 2 -1.49702 15.3592 0.767168 
8404 4 17.4837 15.6485 30.2014 
8454 5 18.0656 16.2584 30.872 
2418 1 19.289 15.5905 0.128942 
8659 4 19.9409 15.878 30.8236 
1195 3 21.9815 16.2587 0.298932 
980 1 23.5309 16.1456 0.654621 
988 5 24.9427 16.2446 0.23008 
304 4 30.0122 15.72 0.629566 
856 2 14.167 16.9653 0.151475 
5177 1 17.0954 16.3949 30.6883 
906 5 19.0888 16.4879 0.527543 
7835 3 20.0267 16.8943 30.9292 
7839 4 20.8743 16.3559 30.7192 
871 2 21.486 17.1077 0.433301 
8468 3 22.4527 17.081 30.6256 
5085 3 23.4521 17.1 30.6017 
2538 2 24.2645 16.66 0.881245 
7840 4 25.9338 16.4677 30.6065 
1620 5 -1.39245 16.8701 0.463168 
8081 5 9.8786 17.5645 30.5526 
8549 5 10.9288 17.4518 30.2504 
7091 3 13.2235 17.1859 30.2227 
223 4 13.9374 17.9338 0.153074 
1001 5 14.9108 17.6366 0.489538 
955 3 15.9306 17.8641 0.490249 
232 4 16.7983 17.2221 0.246376 
1637 1 17.6438 17.6796 0.376302 
974 3 18.5581 17.4002 0.510752 
7829 5 19.5474 17.441 30.1658 
8457 4 20.266 17.8772 30.8363 
8459 2 20.5923 17.2699 30.1017 
7889 1 21.148 17.9725 30.4033 
1229 2 22.0346 17.8279 0.15128 
5764 1 22.7998 17.9681 30.7018 
1176 1 24.623 17.631 0.280227 
981 3 26.6928 17.4809 0.453254 
8511 4 27.5939 17.1788 30.8628 
7232 2 -1.6708 17.835 30.7337 
846 5 -0.682472 17.6165 0.858484 
8681 5 30.0742 18.5346 30.7786 
7253 4 15.2903 18.6307 30.7331 
1746 3 16.126 18.7782 0.134021 
8447 3 16.8706 18.2151 30.5264 
297 3 17.8024 18.4885 0.840918 
454 1 18.7361 18.3295 0.857432 
1074 4 19.5424 18.5063 0.317145 
611 3 21.9453 18.5308 0.819345 
6371 5 23.7223 18.0707 30.3157 
424 3 -5.3735 18.3596 0.893561 
8364 3 25.4725 18.0762 30.4382 
1802 5 26.3909 18.433 0.829738 
1080 4 27.4198 18.1895 0.637677 
301 4 28.1897 18.7128 0.147607 
7080 3 -1.00343 18.6263 30.8072 
598 2 14.3023 19.5376 0.0605306 
7255 2 15.347 19.3446 30.0298 
8605 4 15.876 19.4987 30.8634 
1015 2 16.8218 19.1694 0.726692 
7712 3 17.6938 19.325 30.3387 
443 3 19.2252 19.4858 0.363595 
3781 2 25.5772 19.0245 0.625259 
8055 2 27.4994 19.1914 30.7288 
7737 1 28.4739 19.4008 30.8083 
7211 2 31.0207 20.1168 30.1108 
502 4 16.5928 20.052 0.317732 
2458 2 18.15 20.0909 0.749576 
624 4 31.4323 21.2956 0.469585 
515 4 32.9649 21.1908 0.608506 
1879 1 0.628803 21.7885 0.827895 
8527 1 31.4204 22.2552 30.7138 
8541 2 2.19368 21.8167 30.8266 
7916 3 3.07397 22.2327 30.7521 
4436 2 3.83251 21.6183 30.824 
2352 4 -0.104435 21.8711 0.203206 
1985 4 2.20612 22.7556 0.471641 
374 5 3.95023 22.7232 0.386414 
8749 5 3.09048 23.2857 30.8221 
8698 2 3.9366 23.8807 30.8226 
514 5 30.2562 24.1749 0.744808 
6821 1 2.20345 -5.46348 30.3351 
8544 3 3.09833 24.2969 30.5158 
8661 5 13.0625 24.6782 30.0954 
2361 5 14.8749 24.6936 0.340334 
7869 2 0.617418 24.9927 30.1616 
1254 4 0.33277 25.6151 0.872461 
7958 1 1.54555 24.9883 30.7885 
8019 4 2.25223 25.5382 30.2812 
1835 4 3.27321 25.2753 0.258566 
650 1 14.025 25.1957 0.0886124 
1329 4 14.5067 25.5593 0.848421 
8716 3 16.0678 25.546 30.0701 
8725 5 17.1147 25.6892 30.0293 
1146 3 -0.336684 24.9729 0.357027 
2750 1 30.2971 -3.78974 0.12353 
50 3 31.2249 -4.27276 0.327344 
7487 5 31.8911 -3.4753 30.4882 
3215 1 13.2294 26.1323 0.706466 
1262 4 14.0249 26.1855 0.141894 
2010 2 14.8977 26.503 0.510238 
2725 2 16.4546 -3.68905 0.455556 
1906 4 18.0104 26.1849 0.333681 
2126 1 29.5282 -4.12129 0.448554 
3377 3 30.3526 27.1802 0.0720153 
6823 1 0.827082 -3.36753 30.7149 
1201 3 1.2726 27.4149 0.320484 
116 3 2.92038 -3.3754 0.453846 
665 5 15.7551 27.016 0.77588 
1341 4 16.8968 27.4376 0.670985 
652 3 17.9039 27.1933 0.523541 
500 5 24.5817 26.9521 0.0162035 
1454 4 29.8899 -3.29106 0.859555 
8038 1 15.2531 27.6066 30.1684 
583 1 15.397 28.1224 0.869756 
606 1 16.0913 27.8659 0.350692 
1968 5 19.1288 27.8628 0.879389 
653 3 26.8443 28.2055 0.843362 
6717 1 -2.2912 28.2458 30.5418 
2668 4 -1.45137 28.1085 0.0437734 
1349 5 29.1147 27.6681 0.860527 
8146 2 15.3481 -1.12272 30.3902 
8123 2 16.1593 -1.36181 30.8286 
7950 1 16.8531 28.3282 30.3151 
8049 4 17.6452 28.8548 30.5293 
1233 5 18.5843 28.4766 0.144381 
88 4 19.6616 -1.58506 0.134603 
1284 3 26.2554 28.9786 0.547729 
666 5 27.2866 29.1401 0.630903 
2912 3 28.6612 -0.899364 0.240093 
8587 1 -0.6497 28.5167 30.439 
2217 5 14.9937 -0.178476 0.139948 
8141 1 15.9893 -0.329081 30.0733 
1379 2 16.7961 -0.78493 0.129869 
1837 3 17.7539 29.8623 0.640906 
1219 1 18.5013 29.2847 0.742432 
8624 2 19.1765 29.3183 30.145 
1407 2 -2.11418 -0.277099 0.088668 
5468 2 -0.440449 -0.593204 30.3463 
1326 5 16.5301 30.1802 1.58037 
2101 5 17.4431 0.782085 0.957288 
2167 2 18.316 0.327941 1.27133 
8104 4 25.8482 30.7827 31.2089 
1245 5 26.8783 30.6717 1.45787 
2161 5 28.1074 0.342139 1.45831 
7544 3 -0.559675 0.640989 31.7227 
3459 4 16.3833 1.02076 0.958311 
8318 2 17.3923 1.52978 31.6963 
8606 1 18.4967 31.234 31.5402 
251 4 27.2485 1.64766 1.48466 
8787 4 28.1689 31.3699 31.0965 
480 1 -0.639082 1.57989 1.8025 
799 5 10.1804 2.05066 0.977276 
75 3 16.3831 2.16613 1.35337 
961 5 17.3814 2.51848 1.4073 
2022 2 18.0196 31.8372 1.00221 
8363 4 25.6147 1.77793 31.123 
35 2 26.4886 2.26061 1.26205 
8786 2 28.0191 32.3499 30.9832 
42 1 27.5138 2.56225 1.70661 
149 4 28.9631 2.01898 1.04997 
697 2 15.9978 2.98846 1.69842 
19 1 16.7047 3.39215 1.26659 
813 5 18.423 2.7458 1.15688 
762 4 25.9095 3.07655 1.2221 
2858 3 26.9161 3.23859 1.40346 
8154 4 28.6215 2.93572 31.4975 
2878 1 31.1081 3.98715 1.22598 
7589 3 32.6231 3.8951 31.4841 
2486 1 33.4436 34.0713 1.00871 
8235 2 5.05962 4.23693 31.3246 
6203 2 10.6318 3.83532 31.2823 
7609 2 12.3371 3.84769 31.0781 
8247 4 13.763 3.43393 31.2087 
1323 4 14.7723 34.1646 1.71679 
2058 5 15.8017 3.73733 1.02102 
8297 1 16.4843 4.20732 31.6058 
1338 2 17.1989 34.1522 1.00524 
1434 1 17.5383 3.49126 1.58881 
87 3 18.1465 3.84455 0.950018 
662 2 25.543 34.0402 1.09149 
8522 1 26.255 3.87983 31.6878 
134 5 27.1906 4.25588 1.2904 
785 3 -2.17674 3.46497 1.06027 
772 3 28.1795 4.20049 1.65533 
6916 5 29.2119 4.07405 31.526 
7537 3 30.6009 4.88592 31.6598 
7517 2 31.8149 4.4093 31.6733 
940 4 2.6617 5.11383 1.6291 
160 4 3.54798 5.00876 1.07659 
2048 2 4.74492 5.06373 0.935675 
4927 3 34.3439 4.80347 31.7937 
7131 3 5.28149 5.07291 31.7734 
832 4 36.5329 4.49869 1.18196 
3350 2 10.7454 34.7939 1.35762 
2774 1 11.5624 4.38608 1.17732 
8245 2 12.3613 4.81318 30.9874 
1592 1 13.0926 4.92933 1.58773 
76 4 13.8932 4.48704 1.2348 
8231 1 14.7018 5.0336 31.3196 
8403 5 15.6386 4.73809 31.4816 
7629 2 16.9695 4.971 31.4116 
2115 3 17.909 4.7424 1.29329 
7643 5 25.2971 5.01225 31.0561 
2118 2 26.2608 4.66677 1.16551 
6222 4 27.9785 4.93197 30.9907 
928 5 28.6392 5.12845 1.7972 
8222 3 -0.0214093 4.42655 30.9364 
45 1 29.6502 4.9639 1.61647 
6143 1 0.099266 5.38174 31.0079 
205 4 31.0338 5.69701 1.1582 
2092 2 1.69646 5.34467 1.79888 
8727 1 31.9816 35.954 31.123 
1992 5 4.54697 35.8422 1.59881 
793 2 5.41721 5.73235 1.02891 
1424 5 7.11596 6.00202 1.45615 
1418 2 9.11526 5.63646 1.37751 
6976 1 9.96142 5.24277 31.4645 
1522 1 10.7563 5.69447 1.37544 
2051 5 12.3096 5.54146 1.67514 
6891 2 13.1196 5.98267 31.089 
745 2 13.8919 5.48419 1.29308 
8193 2 15.343 5.7196 31.4418 
3005 1 16.2462 5.539 1.52547 
191 5 17.0153 5.88437 0.93723 
6163 5 17.6507 5.63228 31.8382 
2325 3 18.8493 5.90763 1.44591 
6337 1 19.669 5.75409 31.0202 
8518 5 20.7338 5.55405 30.9465 
2032 5 -3.97585 5.57967 1.60325 
7743 4 27.013 5.31346 31.1824 
881 5 27.8655 5.8665 1.51384 
6859 5 29.306 5.85787 31.3383 
831 5 30.484 6.66562 1.2067 
732 4 1.45142 6.4512 1.7519 
1406 2 2.1464 6.84729 1.1432 
830 5 32.8104 6.18283 1.60544 
8157 3 33.6871 6.02465 31.0477 
7498 2 4.24136 6.8101 31.0273 
1411 4 6.10642 6.37217 1.35727 
7542 3 8.13796 6.23946 31.404 
8238 2 9.03955 6.56512 31.6122 
743 1 9.87827 6.14982 1.49182 
798 4 10.7135 6.64634 1.59157 
8200 4 11.5792 6.18443 31.2486 
8396 3 12.446 6.69124 31.5134 
7563 5 13.9752 6.52856 31.2262 
133 4 15.0681 6.63737 1.1494 
8241 1 15.9953 6.3809 31.3518 
8290 3 17.592 6.60724 31.4579 
4231 1 18.4256 6.60298 30.9773 
6382 5 19.4007 6.72541 31.1167 
7696 5 20.2664 6.27006 31.6272 
819 4 21.1161 6.54844 1.01375 
7789 2 26.4277 6.52545 31.7611 
8389 3 3.00133 7.20024 31.4833 
172 4 3.95621 7.62093 1.53116 
8176 2 4.81077 7.61994 31.0427 
2253 3 7.03699 7.0122 1.19478 
1569 2 9.15344 7.51271 1.56445 
8129 1 9.73938 6.955 31.1351 
2202 3 10.4661 7.5775 1.04168 
2153 1 11.3321 7.55632 1.4345 
8346 5 12.2581 7.67741 31.8176 
5647 4 13.0178 7.43319 31.0328 
7576 1 13.8196 7.45541 31.5859 
864 3 15.8671 7.25539 0.990972 
290 1 16.7174 6.91373 1.21613 
8304 4 17.4289 7.57554 31.1547 
969 2 20.3277 7.16066 1.09502 
242 3 21.2209 7.56206 1.02605 
8307 5 22.0227 6.98759 31.4231 
7919 3 -0.361886 7.32346 31.1402 
2802 5 32.1968 7.84114 1.46474 
208 5 33.1837 8.19008 1.10335 
2198 2 8.61762 7.99545 0.934908 
329 4 9.87531 8.20399 1.5959 
230 2 10.8593 8.3581 1.46636 
445 3 11.8242 8.51614 1.33109 
7671 1 12.6711 8.33631 30.9568 
7094 3 13.2099 8.17602 31.7155 
7596 1 -16.2195 8.29489 30.9836 
7669 5 15.0309 7.76918 31.4388 
252 1 16.5324 7.74968 1.47617 
7623 5 19.5371 7.82542 31.0058 
870 5 19.6708 8.54149 1.81525 
1546 2 20.462 8.05081 1.40122 
8292 2 21.1798 8.53686 31.0314 
7099 1 21.9995 8.08969 31.1079 
170 2 3.86288 8.9311 1.12541 
171 4 10.2633 9.17278 1.47511 
2985 4 12.6583 9.04565 1.6135 
6375 2 13.6581 9.01691 31.5409 
4986 5 21.8591 8.83936 1.72695 
8535 1 -3.33344 13.5884 31.7256 
8523 5 25.2916 14.4071 31.7522 
195 3 26.0354 13.9684 1.1171 
7911 1 -2.88897 14.355 31.5844 
1821 4 -0.522898 14.23 1.73476 
1644 3 18.4197 14.6443 1.17304 
442 1 20.0892 14.9271 0.9553 
7834 5 19.8126 15.4313 31.8034 
1021 5 20.8571 15.3592 1.41336 
8360 2 24.7527 15.2876 31.7727 
7842 1 26.4609 14.8132 31.1973 
8361 1 25.9036 15.1926 31.7866 
5809 5 27.6308 15.1603 31.243 
8427 5 -1.46253 15.3055 31.8128 
2901 3 29.5238 15.1791 1.35559 
314 1 0.163554 15.8054 1.59063 
2894 1 17.9635 15.4506 1.44238 
2326 1 18.52 16.1146 1.72234 
7788 4 18.8744 15.5551 31.026 
447 3 20.4036 16.2877 1.62303 
398 4 21.9106 15.5946 1.36426 
7416 3 22.6639 16.2021 31.0609 
5607 4 24.3358 15.6679 30.9427 
200 4 24.7528 16.2856 1.66633 
465 5 25.3936 15.6717 1.05653 
7686 4 26.4596 15.7908 31.2166 
7175 4 27.5536 16.2266 31.355 
409 3 28.5809 16.2348 1.29829 
956 5 0.572167 16.5217 1.02987 
7699 3 17.5081 17.1144 31.1511 
1594 1 18.6435 16.9195 1.32079 
7112 3 19.407 16.3829 31.5447 
3746 3 -8.26556 16.5999 1.22375 
341 2 22.5656 17.022 1.57082 
7846 3 23.464 16.6495 31.4901 
1664 1 25.1517 16.867 0.991346 
1147 5 -4.20489 16.5203 1.65154 
7156 3 26.7108 16.7815 31.1884 
2457 2 -2.65289 17.0887 1.81082 
8573 4 29.5206 16.5686 31.0413 
1011 3 0.27426 17.4907 1.28917 
488 2 14.046 17.3919 0.992294 
7938 2 16.5464 17.7783 31.3465 
3106 3 18.2099 17.763 1.40317 
8672 4 19.3189 17.6103 31.196 
6585 5 20.9182 17.2072 31.3802 
1860 3 21.8746 17.6137 1.22123 
1238 2 23.287 17.6183 1.39046 
6427 1 24.1368 17.5697 31.0673 
363 5 24.9388 17.6531 1.62884 
410 5 25.9291 17.5022 1.18255 
397 1 26.8956 17.7359 1.34866 
990 2 -2.23252 17.8877 1.51382 
7233 2 -1.59326 17.1886 31.4375 
7820 4 14.3247 18.3471 31.0684 
1210 1 16.1957 18.5829 1.05884 
1331 1 17.034 18.5613 1.38807 
7206 1 17.852 18.5806 31.8076 
464 1 18.9234 18.3072 1.7341 
7265 5 19.9246 18.2813 31.7691 
6481 3 21.0953 18.2412 31.3066 
8669 2 22.5719 18.2321 31.5581 
1081 1 23.3699 18.4967 1.12239 
1227 3 24.0833 18.2541 1.70279 
8473 1 25.5091 18.4003 31.3261 
364 5 27.181 18.7013 1.54655 
1139 1 28.1261 18.6515 1.12058 
8463 2 28.7279 18.0846 31.5667 
2306 1 -0.51218 18.5702 1.6081 
2646 2 15.5749 18.9588 1.62625 
2535 2 16.4703 19.2699 1.61434 
8615 2 17.5636 19.3155 31.3248 
8453 2 18.4456 19.2092 30.9436 
7935 3 19.345 18.9764 31.2396 
7948 5 25.8736 19.2196 31.784 
512 3 26.6177 19.4285 1.05019 
1187 3 27.9029 19.4719 1.54825 
8358 1 28.7763 19.0957 31.5994 
7103 1 16.458 20.1443 31.3059 
7895 5 19.0355 19.981 31.2954 
381 5 2.28201 21.0207 1.4411 
1212 4 3.76043 20.6297 0.9432 
267 5 4.55338 21.2099 1.40093 
8717 3 30.185 21.7276 31.6964 
7912 3 1.45483 21.6659 31.449 
1156 4 3.16356 21.6142 1.53885 
7079 3 4.61227 22.1714 31.0031 
1149 5 0.843961 22.5068 1.49815 
2403 1 1.91572 22.4968 1.39399 
46 4 33.0438 -7.37773 1.657 
8534 4 3.95536 23.0622 31.4313 
572 5 35.0643 23.0522 1.36993 
7857 1 -0.0321424 22.3959 31.0487 
1053 2 0.212025 23.2786 1.24316 
8053 5 31.4746 23.2986 31.0396 
8060 1 32.366 23.3363 31.474 
586 5 3.19299 23.6925 1.81191 
6793 2 30.086 -5.97179 31.7912 
1832 2 0.968491 24.0818 1.45548 
528 5 1.96136 24.2389 1.2691 
8638 4 3.53619 24.6047 31.3889 
8067 5 4.76424 24.1209 31.3853 
1144 3 30.9549 25.0548 1.48385 
1299 2 31.9057 25.2122 1.5884 
8685 3 2.64564 25.002 31.0564 
1312 5 13.4979 25.1924 0.935255 
2682 5 18.6086 25.5601 1.5168 
1230 1 19.5457 25.3334 1.78187 
504 3 21.2135 25.3908 1.66723 
1876 3 -0.0631793 25.001 1.58013 
1304 5 1.31112 26.0458 1.33908 
1225 4 2.51947 26.0212 1.1524 
8653 5 14.0961 26.5128 31.1965 
1960 3 17.2834 26.5387 0.967163 
1232 5 18.2723 26.5892 1.30653 
1295 5 20.326 25.9533 1.65888 
577 5 -0.522538 25.9296 1.46333 
8686 2 0.576404 26.7128 31.6044 
109 5 1.48175 -2.89004 1.31868 
3914 5 14.6923 27.4111 0.953986 
557 4 16.6462 26.9724 1.64177 
549 3 17.5728 27.3682 1.45223 
1441 3 19.3169 -3.0399 1.42017 
2549 2 -0.160994 27.3052 1.69742 
8682 4 30.5541 27.5389 31.0377 
787 4 1.06833 -2.01459 1.77965 
1215 3 16.1857 27.8233 1.30157 
1912 3 18.0943 28.0698 0.974333 
460 2 18.5388 27.5167 1.64481 
1978 4 0.460845 28.9301 1.47861 
7349 5 15.3871 28.9786 31.4229 
564 5 17.1125 28.318 1.26565 
8085 5 17.9108 29.0851 31.5472 
92 2 18.7141 -1.56965 1.61673 
710 5 19.4068 -1.0754 1.03969 
715 4 26.6509 -1.05569 1.49404 
6864 5 27.6228 -1.50362 31.502 
2711 1 -1.53013 -1.58572 0.962046 
628 2 -0.889726 29.1015 1.09138 
2493 1 29.7135 28.3838 1.23753 
1501 4 30.9425 -0.162141 1.30467 
2730 1 16.0599 -0.452765 0.944758 
2005 3 16.9706 29.3477 1.10033 
4616 1 17.5111 30.0044 1.55216 
5416 2 -4.3562 -0.241848 31.461 
9 2 -3.52051 -0.201496 0.996631 
1296 2 27.3177 29.7098 1.47239 
141 3 28.1901 -0.687634 1.13437 
1966 4 28.9456 29.7842 1.80426 
1513 5 -0.154165 -0.220352 1.26446 
2137 3 1.55515 0.167867 2.04417 
145 3 17.8439 0.743578 2.02159 
2746 1 26.5163 0.680657 2.38552 
1294 4 27.3614 30.2333 2.31494 
8166 5 -1.61495 0.342047 32.5437 
1420 4 0.998708 1.02168 2.18783 
8224 5 2.06658 1.08906 32.0998 
1378 5 16.5015 1.54084 2.18451 
1438 4 26.2803 1.45708 1.84347 
1348 1 26.8456 31.5035 2.64476 
153 5 27.7534 1.21117 2.32759 
49 1 28.6425 1.08691 1.89404 
8219 1 -0.877985 1.27815 32.6433 
1443 3 30.6617 1.86759 2.63272 
678 2 2.35432 2.05866 2.68525 
766 2 16.7122 2.54212 2.19043 
667 1 17.3619 31.9855 2.50662 
8776 5 18.2046 32.0934 32.0097 
2963 4 25.3749 1.9117 2.11105 
4207 1 26.7926 2.23184 2.13635 
8368 1 27.6086 2.18982 32.5462 
773 4 28.3053 2.01237 1.86714 
8028 5 15.9816 33.0594 32.7446 
238 5 17.6436 2.91512 2.39716 
2749 1 24.8543 2.7343 2.03618 
7687 4 26.3698 3.1181 32.2892 
7605 1 -2.16513 3.3466 32.0239 
783 2 -1.69341 2.7631 2.53756 
1899 4 15.7275 33.8889 2.08767 
808 4 16.7877 3.54181 2.2276 
706 4 18.2567 4.0378 1.94698 
196 4 25.3502 3.56547 1.96407 
2024 1 26.024 34.0154 2.52607 
7650 1 -2.57857 4.10635 32.2904 
3530 4 28.7066 3.67454 2.35893 
8165 5 0.228729 5.08253 32.6374 
4172 4 1.2165 4.7131 2.41677 
8274 5 3.38389 4.38057 31.9784 
2761 5 11.492 4.9083 2.05243 
700 5 13.8837 4.96668 2.19553 
2636 3 15.2217 34.737 2.44176 
243 1 17.315 4.29875 1.91746 
7683 2 25.6415 4.53132 31.9054 
1552 5 26.6287 4.68641 2.12451 
943 2 -2.41162 4.95548 1.90629 
206 4 28.2175 4.57636 2.6099 
892 5 -0.729249 4.57149 2.47764 
7649 4 0.228975 5.82659 31.8713 
777 5 31.1098 5.77466 2.49658 
845 3 2.11566 5.98879 2.39495 
674 5 33.5965 35.5647 2.01776 
701 1 4.74372 5.36192 2.47218 
1537 1 10.5495 5.25636 2.12676 
28 4 11.2328 5.94629 2.18012 
795 1 13.2786 5.73261 1.94232 
2883 4 14.2147 5.98141 2.10451 
8226 3 15.7136 5.57774 32.3326 
8356 4 19.6422 5.45801 31.9439 
1548 3 20.5946 5.57781 2.31483 
4367 5 25.064 5.36891 2.04086 
2339 5 26.9842 5.7507 2.14769 
1572 1 -1.97601 5.54174 2.48414 
8263 1 29.4284 5.53262 32.2963 
201 4 30.6127 6.7033 2.29114 
7483 2 31.5234 6.69051 32.7499 
634 5 3.76 36.6442 1.88749 
8446 1 10.2809 6.11443 32.3199 
897 1 10.8358 6.77519 2.54621 
894 4 12.5202 6.75017 2.51154 
181 4 13.5325 6.77549 2.18401 
8254 3 15.0779 6.31393 32.5887 
973 4 16.7785 6.24574 1.9252 
2362 3 17.644 6.49437 2.41638 
349 4 18.4826 6.80261 1.90772 
1596 2 19.0298 6.10143 2.38585 
2320 3 19.96 6.30543 2.61035 
7518 2 21.2384 6.2265 31.9824 
299 5 27.7498 6.49025 2.41517 
7484 3 28.7002 6.12329 32.1583 
6914 3 29.6645 6.67484 31.8957 
307 5 31.3594 7.47159 2.07031 
151 4 32.3073 6.96351 2.15254 
888 4 4.09361 7.40915 2.54925 
1514 5 4.79632 6.98275 1.84944 
1425 3 9.82268 6.92148 2.05648 
2149 4 10.6018 7.59538 2.07336 
227 3 11.6208 6.88114 2.02742 
1486 2 13.0402 7.60638 2.45937 
1642 4 14.5439 6.97652 2.00011 
758 4 14.0156 7.54118 2.71889 
1480 5 15.6181 7.01691 2.00027 
3724 3 17.0857 7.22033 2.03927 
1652 3 19.2732 7.04038 2.52059 
295 2 19.8819 7.47131 1.88357 
8250 4 20.817 7.12937 31.9906 
347 1 21.6852 6.93088 2.369 
1009 4 11.4638 8.22795 2.26121 
1541 2 12.5798 8.42851 2.40224 
8138 2 13.4916 8.41433 32.6886 
1590 5 14.219 8.28539 1.9633 
2893 4 15.8451 8.31118 1.87396 
303 4 18.9267 7.761 1.86688 
862 1 19.5388 7.93978 2.60531 
916 2 20.4163 8.09412 2.35343 
915 4 21.6123 7.8135 1.93723 
229 2 21.5825 8.52107 2.65351 
3688 5 22.5117 8.22137 2.35779 
2269 5 10.4786 8.63131 2.37707 
714 4 13.0417 9.30027 2.56474 
183 3 15.0363 8.94349 1.99403 
293 4 20.7865 8.88492 1.85257 
1598 3 21.3903 9.4474 2.45225 
7909 5 -3.67649 12.7522 32.1961 
411 1 24.9793 13.6432 2.30551 
2178 1 25.8259 13.5789 1.96181 
975 3 26.4975 13.6752 2.63745 
878 2 25.6554 14.1636 2.65674 
7022 2 -3.73391 14.3819 31.9928 
1712 2 26.9661 14.5266 2.70314 
254 4 27.4665 13.7762 2.27067 
4980 1 28.5343 14.3067 31.8913 
1798 3 29.0678 14.306 2.66734 
7276 2 30.3412 15.0589 32.1214 
3576 5 32.7257 14.5909 2.47465 
8455 5 18.7606 15.1918 32.0236 
8514 3 20.4911 14.7153 32.1843 
1651 1 21.3612 15.0873 2.23807 
921 1 24.2783 14.9797 2.48518 
2344 1 -4.83746 15.0091 2.51469 
1040 3 26.1245 15.0249 2.68242 
1087 4 26.8605 15.2122 1.98189 
7121 3 27.7597 14.7465 32.198 
370 2 -0.602633 15.1506 2.32656 
8264 2 30.0311 15.8573 32.5269 
8385 2 1.59888 15.7173 32.7345 
489 4 2.43633 16.1949 2.13704 
7929 4 19.8068 16.2703 32.4869 
2368 3 20.6371 15.6867 2.38492 
472 1 -8.68881 16.1445 1.93233 
5817 1 22.2219 16.279 32.0164 
6960 1 23.0093 16.1224 32.4197 
143 2 24.7112 15.8015 2.54311 
506 5 26.8009 16.2783 2.08964 
829 3 27.7061 15.7412 2.22218 
873 2 28.8487 15.821 2.68105 
2289 2 -0.699027 15.9833 1.87572 
5198 4 31.1466 16.4992 31.9763 
215 5 3.77251 16.5141 2.35838 
291 4 17.9623 17.0011 2.03493 
8509 5 20.7814 16.711 32.569 
8570 5 21.7133 17.129 32.1582 
3098 3 23.1721 17.0653 2.3364 
1862 4 23.9454 16.396 2.32944 
2443 3 24.7958 16.9717 2.41895 
8428 1 -1.90118 16.5932 32.0725 
416 2 29.0137 16.8536 2.09544 
7852 5 30.0233 16.7257 31.9734 
7108 1 31.0257 17.2215 32.6296 
7794 2 31.7333 17.3048 32.0303 
1836 1 6.98302 17.4893 2.53884 
8464 2 17.3415 17.8124 31.8538 
6531 1 18.1123 17.9121 32.3613 
8627 3 18.8878 17.427 32.1112 
872 5 19.9671 17.1964 1.91105 
7159 5 20.8229 17.7805 32.3328 
1699 4 22.5993 17.9043 2.47842 
1861 2 24.0197 17.3069 1.91634 
1611 1 23.5816 17.9239 2.43736 
1658 1 24.4807 17.8768 2.47903 
8517 3 25.4301 17.8534 32.5638 
1716 3 26.4448 17.2648 2.05959 
7319 4 27.1745 17.9348 32.3262 
8569 5 28.3171 17.6054 32.3704 
8568 3 29.5342 17.6594 31.9243 
511 4 30.04 18.0779 2.68617 
1728 2 1.01352 18.1609 2.55163 
958 4 6.94933 18.4612 2.43361 
7928 2 16.5562 18.2592 32.1673 
7954 2 21.7428 18.1462 32.0502 
8510 3 23.2909 18.7599 32.0563 
7849 1 24.0686 18.665 32.5883 
8623 5 24.9569 18.684 32.1326 
7280 3 26.2729 18.225 31.8869 
7894 4 28.0976 18.6356 32.1226 
1052 4 -0.971086 18.375 2.44839 
8689 2 4.08162 19.6076 32.6231 
8498 5 5.08004 19.4112 32.3855 
951 4 6.08176 19.0371 2.2515 
526 3 7.55818 19.2839 2.5182 
1209 1 8.4789 19.1101 2.61222 
3937 2 15.1042 19.3034 2.37295 
1173 3 16.0449 19.0727 2.46996 
3046 1 17.1461 18.9631 2.18583 
1013 5 18.6012 19.2296 1.93727 
8731 2 23.6137 19.4676 32.6449 
1138 2 24.1362 19.2392 1.84513 
7118 2 24.5631 19.4502 32.6957 
7553 4 4.59138 -9.77124 31.9226 
631 1 5.54322 20.232 2.70125 
7920 3 6.44562 19.9188 32.64 
4433 1 7.1185 20.5807 2.52361 
435 5 8.21963 20.0399 2.22213 
477 2 15.021 20.3305 2.49498 
7994 4 15.7772 19.9155 31.9747 
3093 4 17.1257 19.9374 1.96286 
8748 2 0.897492 21.3039 32.1721 
1117 1 31.8082 21.0483 2.36107 
7863 5 2.78057 21.1217 32.4416 
8684 5 33.8915 21.2421 32.5575 
1937 5 5.16834 21.0665 2.30442 
1784 3 6.21343 20.8759 2.47562 
1890 2 7.92281 21.0608 2.41741 
331 4 8.90917 20.8343 2.40542 
1822 1 0.600601 22.1517 2.39232 
524 2 2.36031 21.9788 2.0151 
1155 3 3.21929 22.0713 2.48535 
7967 5 4.06143 22.0996 31.8956 
482 2 5.08978 21.981 1.82047 
380 4 -0.39424 21.8637 2.51875 
1100 2 0.68826 23.0698 2.34518 
8679 5 31.5919 22.5496 32.3554 
3249 1 2.52532 22.7245 2.55077 
3335 3 3.67116 22.9532 2.37948 
8688 2 5.17215 22.7766 32.3672 
3261 2 29.2052 22.7664 2.58124 
2340 3 29.9317 22.6521 1.94192 
1199 4 1.60906 23.5842 2.04487 
8496 5 2.48982 23.7262 32.6735 
580 4 4.51242 23.516 2.20438 
863 2 5.46308 -6.28888 2.00704 
2602 3 -0.173415 23.5068 2.53523 
63 3 0.768337 -5.99329 2.43406 
6505 1 1.47952 24.5498 32.1106 
1738 3 2.6835 24.5953 1.94629 
1927 3 4.95962 24.3887 2.51189 
3052 2 19.5569 24.7646 2.52257 
1127 3 21.2719 24.7504 2.44344 
8061 4 -7.89993 24.8535 31.8817 
8100 3 23.0812 24.6785 32.5744 
8588 5 -0.412839 24.5287 32.5722 
1928 3 0.524447 24.9966 2.40215 
2710 1 1.26179 -4.46362 2.20767 
2550 4 2.07366 25.1522 2.56505 
3266 1 18.9586 25.4623 2.45579 
559 3 20.3801 24.9701 2.04021 
2529 4 19.9021 25.6918 2.60791 
8046 1 20.8811 25.6223 32.5603 
358 4 21.857 25.5932 2.55349 
8680 5 22.9149 25.7048 32.4159 
2492 2 23.9227 25.0681 2.26974 
778 2 29.7173 -4.49505 2.38263 
1975 2 30.4577 25.8138 1.84745 
114 2 1.21098 -3.53054 2.25559 
1880 3 2.06334 26.0424 2.07093 
1178 1 17.4693 26.5296 1.90599 
2016 5 18.3099 26.2237 2.34501 
385 2 19.2701 26.1918 1.98443 
673 5 21.2809 26.3757 2.01415 
1044 3 -6.09965 26.0117 2.51489 
566 5 24.8338 25.9432 1.99869 
588 4 -0.139206 26.5092 2.29556 
1353 5 0.597864 -2.73136 2.43304 
2656 3 2.01332 26.8218 2.69048 
7359 5 17.9456 27.2479 32.4506 
619 4 19.0019 27.0582 2.4095 
2015 4 20.0226 27.1691 2.13582 
2813 4 -6.82142 -3.28225 2.41464 
7797 3 24.3753 26.8614 32.2261 
99 2 25.3643 -3.24345 2.40789 
8122 4 0.0795594 -1.84315 32.1271 
2014 3 17.0012 27.7772 2.15787 
659 2 17.8842 28.1533 1.93384 
458 2 18.6564 28.0009 2.46021 
8209 1 19.378 -2.18576 31.8855 
668 3 22.5153 27.4597 2.6613 
1933 4 -6.04285 27.7036 2.65784 
1401 1 29.1955 -2.08129 1.83631 
1409 5 -0.486454 -2.55686 2.66943 
8208 2 30.9706 -1.47229 32.6342 
33 4 17.1669 -1.24334 2.23243 
3465 5 18.1798 -1.12922 2.572 
2129 5 28.6123 -1.26245 1.91775 
8268 1 29.2945 -1.58049 32.6024 
6902 2 29.5992 -0.990797 31.9402 
101 4 30.8447 -0.534445 2.28943 
1873 3 -3.54607 29.8503 1.97862 
4005 1 -2.85849 29.269 2.27389 
1194 1 28.0311 29.5678 2.05482 
731 5 -0.168399 -0.102679 2.35449 
1234 1 30.6751 30.3341 2.76966 
217 3 0.148664 0.575109 3.52986 
738 1 1.61127 0.665722 2.85845 
804 3 1.10951 0.314268 3.60828 
2661 4 2.15688 30.3467 3.59814 
2562 5 3.18273 30.6914 3.41917 
1503 2 26.6649 0.828227 3.28705 
2287 4 27.6398 0.647809 3.23331 
1453 3 29.3026 0.446562 3.05234 
1256 1 0.840742 31.1247 3.14663 
685 2 1.55096 1.58233 2.80893 
255 1 31.6263 1.12469 3.63473 
103 2 32.3747 1.16533 3.09676 
2532 3 17.0977 31.2033 2.97145 
8465 5 18.1496 1.20778 32.9447 
1445 5 25.881 1.30403 2.82943 
8257 1 27.5394 1.61477 33.2356 
827 2 31.6129 2.52917 3.00499 
2869 3 1.06608 1.91114 3.58043 
5 1 2.0224 1.91208 3.53472 
3598 2 2.94004 1.85306 3.43265 
1328 4 16.4474 32.1534 3.08421 
2006 1 17.3557 31.9937 3.41581 
590 2 18.1372 32.2554 2.98735 
100 5 25.894 2.38825 2.91942 
779 5 26.6129 1.84381 3.54453 
836 5 -2.15667 2.53286 3.42777 
780 3 28.4082 1.823 2.87492 
2739 5 32.5214 2.7811 3.39736 
2117 5 16.9511 3.16017 3.23422 
2057 2 18.1365 3.17286 3.2504 
7459 3 25.0613 2.8222 33.42 
2026 1 26.0578 33.3765 3.15914 
1391 4 26.8668 2.79611 3.1401 
81 5 16.7422 4.22299 3.41996 
8259 5 17.6163 3.95252 32.8364 
246 2 18.6388 3.91244 2.87515 
2070 5 25.176 3.80013 3.00946 